{
    "backgroundColor":[150,175,150], 
    "textColor":[255,255,255],

    "group":18,
    "period":2,
    "symbol":"Ne",
    "family":"Noble Gases",
    "fullName":"Neon",
    "AtomicNumber":10,
    "AtomicMass":20.180,
    "MeltingPointKelvin":24.56,
    "BoilingPointKelvin": 27.07,
    "CommonUses":"",
    "Description":""
}
