{
    "backgroundColor":[150,75,125], 
    "textColor":[255,255,255],

    "group":"Actinides",
    "period":7,
    "symbol":"Fm",
    "family":"Actinides",
    "fullName":"Fermium",
    "AtomicNumber":100,
    "AtomicMass":"(257)",
    "MeltingPointKelvin":"1,800",
    "BoilingPointKelvin": "Unknown",
    "CommonUses":"No use outside research.",
    "Description":"Radioactive-Fermium is typically made by bombarding plutonium with neutrons in a nuclear reactor; named after Enrico Fermi, inventor of the first nuclear reaction and self-sustained chain reaction."
}
