{
    "backgroundColor":[150,75,125], 
    "textColor":[255,255,255],

    "group":"Actinides",
    "period":7,
    "symbol":"Fm",
    "family":"Actinides",
    "fullName":"Fermium",
    "AtomicNumber":100,
    "AtomicMass":"(257)",
    "MeltingPointKelvin":"1,800",
    "BoilingPointKelvin": "Unknown",
    "CommonUses":"No use outside research.",
    "Description":"Fermium is typically created from bombarding plutonium with neutrons in a nuclear reactor."
}
