{
    "backgroundColor":[100,100,150], 
    "textColor":[255,255,255],

    "group":"Actinides",
    "period":7,
    "symbol":"Fm",
    "family":"Actinides",
    "fullName":"Fermium",
    "AtomicNumber":100,
    "AtomicMass":"(257)",
    "MeltingPointKelvin":1,800,
    "BoilingPointKelvin": "Unknown",
    "CommonUses":"",
    "Description":""
}
