{
    "backgroundColor":[100,100,150], 
    "textColor":[255,255,255],

    "group":"Actinides",
    "period":7,
    "symbol":"Md",
    "family":"Actinides",
    "fullName":"Mendelevium",
    "AtomicNumber":101,
    "AtomicMass":"(258)",
    "MeltingPointKelvin":1,100,
    "BoilingPointKelvin": "Unknown",
    "CommonUses":"",
    "Description":""
}
