{
    "backgroundColor":[150,75,125], 
    "textColor":[255,255,255],

    "group":"Actinides",
    "period":7,
    "symbol":"No",
    "family":"Actinides",
    "fullName":"Nobelium",
    "AtomicNumber":102,
    "AtomicMass":"(259)",
    "MeltingPointKelvin":"1,100",
    "BoilingPointKelvin": "Unknown",
    "CommonUses":"No use outside research.",
    "Description":"Nobelium is made by bombarding curium with carbon in a cyclotron; named after Alfred Nobel, the inventor of dynamite."
}
