{
    "backgroundColor":[150,75,125], 
    "textColor":[255,255,255],

    "group":"Actinides",
    "period":7,
    "symbol":"Lr",
    "family":"Actinides",
    "fullName":"Lawrencium",
    "AtomicNumber":103,
    "AtomicMass":"(266)",
    "MeltingPointKelvin":"1,900",
    "BoilingPointKelvin": "Unknown",
    "CommonUses":"No use outside research.",
    "Description":"Radioactive-Lawrencium is made by bombarding californium with boron; named after Ernest Lawrence, inventor of the cyclotron."
}
