{
    "backgroundColor":[150,100,50], 
    "textColor":[255,255,255],

    "group":1,
    "period":3,
    "symbol":"Na",
    "family":"Alkali Metals",
    "fullName":"Sodium",
    "AtomicNumber":11,
    "AtomicMass":22.990,
    "MeltingPointKelvin":370.87,
    "BoilingPointKelvin":"1,156",
    "CommonUses":"",
    "Description":""
}
