{
    "backgroundColor":[150,100,50], 
    "textColor":[255,255,255],

    "group":1,
    "period":3,
    "symbol":"Na",
    "family":"Alkali Metals",
    "fullName":"Sodium",
    "AtomicNumber":11,
    "AtomicMass":22.990,
    "MeltingPointKelvin":370.87,
    "BoilingPointKelvin":"1,156",
    "CommonUses":"production of titanium, liquid sodium used to cool nuclear reactors, vapor used in streetlights, useful compounds and salts.",
    "Description":"Sodium is a soft, silvery metal that tarnishes immediately when exposed to air and reacts violently with water."
}
