{
    "backgroundColor":[100,100,150], 
    "textColor":[255,255,255],

    "group":18,
    "period":7,
    "symbol":"Og",
    "family":"",
    "fullName":"Oganesson",
    "AtomicNumber":118,
    "AtomicMass":"(294)",
    "MeltingPointKelvin":202,
    "BoilingPointKelvin": 211.3,
    "CommonUses":"",
    "Description":"The last one."
}
