{
    "backgroundColor":[200,180,100], 
    "textColor":[255,255,255],

    "group":2,
    "period":3,
    "symbol":"Mg",
    "family":"Alkaline Earth Metals",
    "fullName":"Magnesium",
    "AtomicNumber":12,
    "AtomicMass":24.305,
    "MeltingPointKelvin":923,
    "BoilingPointKelvin": "1,363",
    "CommonUses":"fireproof compounds, milk of magnesia for cattle feed, epsom salts, medicine",
    "Description":"Magnesium is a light, silvery-white and durable metal that burns very bright."
}
