{
    "backgroundColor":[100,100,150], 
    "textColor":[255,255,255],

    "group":2,
    "period":3,
    "symbol":"Mg",
    "family":"Alkaline Earth Metals",
    "fullName":"Magnesium",
    "AtomicNumber":12,
    "AtomicMass":24.305,
    "MeltingPointKelvin":923,
    "BoilingPointKelvin": "1,363",
    "CommonUses":"",
    "Description":""
}
