{
    "backgroundColor":[100,180,50], 
    "textColor":[255,255,255],

    "group":16,
    "period":3,
    "symbol":"S",
    "family":"Reactive Nonmetals",
    "fullName":"Sulfur",
    "AtomicNumber":16,
    "AtomicMass":32.06,
    "MeltingPointKelvin":388.36,
    "BoilingPointKelvin": 717.87,
    "CommonUses":"",
    "Description":"Chalcogen, "
}
