{
    "backgroundColor":[100,100,150], 
    "textColor":[255,255,255],

    "group":2,
    "period":4,
    "symbol":"Ca",
    "family":"Alkaline Earth Metals",
    "fullName":"Calcium",
    "AtomicNumber":20,
    "AtomicMass":40.078,
    "MeltingPointKelvin":"1,115",
    "BoilingPointKelvin": "1,757",
    "CommonUses":"",
    "Description":""
}
