{
    "backgroundColor":[175,20,50], 
    "textColor":[255,255,255],

    "group":3,
    "period":4,
    "symbol":"Sc",
    "family":"Transition Metals",
    "fullName":"Scandium",
    "AtomicNumber":21,
    "AtomicMass":44.956,
    "MeltingPointKelvin":"1,814",
    "BoilingPointKelvin": "3,103",
    "CommonUses":"",
    "Description":""
}
