{
    "backgroundColor":[175,20,50], 
    "textColor":[255,255,255],

    "group":5,
    "period":4,
    "symbol":"V",
    "family":"Transition Metals",
    "fullName":"Vanadium",
    "AtomicNumber":23,
    "AtomicMass":50.942,
    "MeltingPointKelvin":"2,183",
    "BoilingPointKelvin": "3,680",
    "CommonUses":"",
    "Description":""
}
