{
    "backgroundColor":[175,20,50], 
    "textColor":[255,255,255],

    "group":6,
    "period":4,
    "symbol":"Cr",
    "family":"Transition Metals",
    "fullName":"Chromium",
    "AtomicNumber":24,
    "AtomicMass":51.996,
    "MeltingPointKelvin":"2,180",
    "BoilingPointKelvin": "2,944",
    "CommonUses":"",
    "Description":""
}
