{
    "backgroundColor":[175,20,50], 
    "textColor":[255,255,255],

    "group":7,
    "period":4,
    "symbol":"Mn",
    "family":"Transition Metals",
    "fullName":"Manganese",
    "AtomicNumber":25,
    "AtomicMass":54.938,
    "MeltingPointKelvin":"1,519",
    "BoilingPointKelvin": "2,334",
    "CommonUses":"",
    "Description":""
}
