{
    "backgroundColor":[175,20,50], 
    "textColor":[255,255,255],

    "group":8,
    "period":4,
    "symbol":"Fe",
    "family":"Transition Metals",
    "fullName":"Iron",
    "AtomicNumber":26,
    "AtomicMass":55.845,
    "MeltingPointKelvin":"1,811",
    "BoilingPointKelvin": "3,134",
    "CommonUses":"",
    "Description":""
}
