{
    "backgroundColor":[175,20,50], 
    "textColor":[255,255,255],

    "group":9,
    "period":4,
    "symbol":"Co",
    "family":"Transition Metals",
    "fullName":"Cobalt",
    "AtomicNumber":27,
    "AtomicMass":58.933,
    "MeltingPointKelvin":"1,768",
    "BoilingPointKelvin": "3,200",
    "CommonUses":"",
    "Description":""
}
