{
    "backgroundColor":[100,100,150], 
    "textColor":[255,255,255],
    "imagePath":"Assets/Images/lithium.png",
    "group":1,
    "period":2,
    "symbol":"Li",
    "family":"Alkali Metals",
    "fullName":"Lithium",
    "AtomicNumber":3,
    "AtomicMass":6.94,
    "MeltingPointKelvin":453.69,
    "BoilingPointKelvin": "1,615",
    "CommonUses":"",
    "Description":""
}
