{
    "backgroundColor":[0,100,150], 
    "textColor":[255,255,255],

    "group":13,
    "period":4,
    "symbol":"Ga",
    "family":"Post-Transition/Other Metals",
    "fullName":"Gallium",
    "AtomicNumber":31,
    "AtomicMass":69.723,
    "MeltingPointKelvin":302.91,
    "BoilingPointKelvin": "2,477",
    "CommonUses":"",
    "Description":""
}
