{
    "backgroundColor":[100,180,50], 
    "textColor":[255,255,255],

    "group":16,
    "period":4,
    "symbol":"Se",
    "family":"Reactive Nonmetals",
    "fullName":"Selenium",
    "AtomicNumber":34,
    "AtomicMass":78.971,
    "MeltingPointKelvin":494,
    "BoilingPointKelvin": 958,
    "CommonUses":"",
    "Description":"Chalcogen, "
}
