{
    "backgroundColor":[100,180,50], 
    "textColor":[255,255,255],

    "group":17,
    "period":4,
    "symbol":"Br",
    "family":"Reactive Nonmetals",
    "fullName":"Bromine",
    "AtomicNumber":35,
    "AtomicMass":79.904,
    "MeltingPointKelvin":265.8,
    "BoilingPointKelvin": 332,
    "CommonUses":"",
    "Description":"Halogen, "
}
