{
    "backgroundColor":[150,75,150], 
    "textColor":[255,255,255],

    "group":18,
    "period":4,
    "symbol":"Kr",
    "family":"Noble Gases",
    "fullName":"Krypton",
    "AtomicNumber":36,
    "AtomicMass":83.798,
    "MeltingPointKelvin":115.79,
    "BoilingPointKelvin": 119.93,
    "CommonUses":"",
    "Description":""
}
