{
    "backgroundColor":[150,100,50], 
    "textColor":[255,255,255],

    "group":1,
    "period":5,
    "symbol":"Rb",
    "family":"Alkali Metals",
    "fullName":"Rubidium",
    "AtomicNumber":37,
    "AtomicMass":85.468,
    "MeltingPointKelvin":312.46,
    "BoilingPointKelvin":961,
    "CommonUses":"",
    "Description":""
}
