{
    "backgroundColor":[100,100,150], 
    "textColor":[255,255,255],

    "group":2,
    "period":5,
    "symbol":"Sr",
    "family":"Alkaline Earth Metals",
    "fullName":"Strontium",
    "AtomicNumber":38,
    "AtomicMass":87.62,
    "MeltingPointKelvin":"1,050",
    "BoilingPointKelvin": "1,655",
    "CommonUses":"",
    "Description":""
}
