{
    "backgroundColor":[175,20,50], 
    "textColor":[255,255,255],

    "group":3,
    "period":5,
    "symbol":"Y",
    "family":"Transition Metals",
    "fullName":"Yttrium",
    "AtomicNumber":39,
    "AtomicMass":88.906,
    "MeltingPointKelvin":"1,799",
    "BoilingPointKelvin": "3,618",
    "CommonUses":"",
    "Description":""
}
