{
    "backgroundColor":[175,20,50], 
    "textColor":[255,255,255],

    "group":4,
    "period":5,
    "symbol":"Zr",
    "family":"Transition Metals",
    "fullName":"Zirconium",
    "AtomicNumber":40,
    "AtomicMass":91.224,
    "MeltingPointKelvin":"2,128",
    "BoilingPointKelvin": "4,682",
    "CommonUses":"",
    "Description":""
}
