{
    "backgroundColor":[175,20,50], 
    "textColor":[255,255,255],

    "group":5,
    "period":5,
    "symbol":"Nb",
    "family":"Transition Metals",
    "fullName":"Niobium",
    "AtomicNumber":41,
    "AtomicMass":92.906,
    "MeltingPointKelvin":"2,750",
    "BoilingPointKelvin": "5,017",
    "CommonUses":"",
    "Description":""
}
