{
    "backgroundColor":[175,20,50], 
    "textColor":[255,255,255],

    "group":9,
    "period":5,
    "symbol":"Rh",
    "family":"Transition Metals",
    "fullName":"Rhodium",
    "AtomicNumber":45,
    "AtomicMass":102.91,
    "MeltingPointKelvin":"2,237",
    "BoilingPointKelvin": "3,968",
    "CommonUses":"",
    "Description":""
}
