{
    "backgroundColor":[175,20,50], 
    "textColor":[255,255,255],

    "group":10,
    "period":5,
    "symbol":"Pd",
    "family":"Transition Metals",
    "fullName":"Palladium",
    "AtomicNumber":46,
    "AtomicMass":106.42,
    "MeltingPointKelvin":"1,828.05",
    "BoilingPointKelvin": "3,236",
    "CommonUses":"",
    "Description":""
}
