{
    "backgroundColor":[175,20,50], 
    "textColor":[255,255,255],

    "group":11,
    "period":5,
    "symbol":"Ag",
    "family":"Transition Metals",
    "fullName":"Silver",
    "AtomicNumber":47,
    "AtomicMass":107.87,
    "MeltingPointKelvin":"1,234.93",
    "BoilingPointKelvin": "2,435",
    "CommonUses":"",
    "Description":""
}
