{
    "backgroundColor":[0,150,150], 
    "textColor":[255,255,255],

    "group":13,
    "period":2,
    "symbol":"B",
    "family":"Metalloids/Semi-Metals",
    "fullName":"Boron",
    "AtomicNumber":5,
    "AtomicMass":10.81,
    "MeltingPointKelvin":2348,
    "BoilingPointKelvin": 4273,
    "CommonUses":"",
    "Description":""
}
