{
    "backgroundColor":[0,100,150], 
    "textColor":[255,255,255],

    "group":14,
    "period":5,
    "symbol":"Sn",
    "family":"Post-Transition/Other Metals",
    "fullName":"Tin",
    "AtomicNumber":50,
    "AtomicMass":118.71,
    "MeltingPointKelvin":505.85,
    "BoilingPointKelvin": "2,875",
    "CommonUses":"",
    "Description":""
}
