{
    "backgroundColor":[0,150,150], 
    "textColor":[255,255,255],

    "group":16,
    "period":5,
    "symbol":"Te",
    "family":"Metalloids/Semi-Metals",
    "fullName":"Tellerium",
    "AtomicNumber":52,
    "AtomicMass":127.60,
    "MeltingPointKelvin":722.66,
    "BoilingPointKelvin": "1,261",
    "CommonUses":"",
    "Description":"Chalcogen, "
}
