{
    "backgroundColor":[150,100,50], 
    "textColor":[255,255,255],

    "group":1,
    "period":6,
    "symbol":"Cs",
    "family":"Alkali Metals",
    "fullName":"Caesium",
    "AtomicNumber":55,
    "AtomicMass":132.91,
    "MeltingPointKelvin":301.59,
    "BoilingPointKelvin":944,
    "CommonUses":"",
    "Description":""
}
