{
    "backgroundColor":[200,180,100], 
    "textColor":[255,255,255],

    "group":2,
    "period":6,
    "symbol":"Ba",
    "family":"Alkaline Earth Metals",
    "fullName":"Barium",
    "AtomicNumber":56,
    "AtomicMass":137.33,
    "MeltingPointKelvin":"1,000",
    "BoilingPointKelvin": "2,143",
    "CommonUses":"",
    "Description":""
}
