{
    "backgroundColor":[150,100,100], 
    "textColor":[255,255,255],

    "group":"Lanthanides",
    "period":6,
    "symbol":"La",
    "family":"Lanthanides",
    "fullName":"Lanthanum",
    "AtomicNumber":57,
    "AtomicMass":138.905,
    "MeltingPointKelvin":"1,193",
    "BoilingPointKelvin": "3,737",
    "CommonUses":"Commonly used in many alloys to store hydrogen gas for vehicles. ",
    "Description":"Discovered by Carl Gustav Mosander in the year 1839. Lanthanum appears as a soft and silvery-white metal..."
}
