{
    "backgroundColor":[100,100,150], 
    "textColor":[255,255,255],

    "group":"Lanthanides",
    "period":6,
    "symbol":"Ce",
    "family":"Lanthanides",
    "fullName":"Cerium",
    "AtomicNumber":58,
    "AtomicMass":140.12,
    "MeltingPointKelvin":"1,071",
    "BoilingPointKelvin": "3,633",
    "CommonUses":"",
    "Description":""
}
