{
    "backgroundColor":[120,70,70],
    "textColor":[255,255,255],

    "group":"Lanthanides",
    "period":6,
    "symbol":"Pr",
    "family":"Lanthanides",
    "fullName":"Praesodymium",
    "AtomicNumber":59,
    "AtomicMass":140.91,
    "MeltingPointKelvin":"1,204",
    "BoilingPointKelvin": "3,563",
    "CommonUses":"",
    "Description":""
}
