{
    "backgroundColor":[100,180,50], 
    "textColor":[255,255,255],

    "group":14,
    "period":2,
    "symbol":"C",
    "family":"Reactive Nonmetals",
    "fullName":"Carbon",
    "AtomicNumber":6,
    "AtomicMass":12.011,
    "MeltingPointKelvin":3915,
    "BoilingPointKelvin": 3915,
    "CommonUses":"",
    "Description":""
}
