{
    "backgroundColor":[100,100,150], 
    "textColor":[255,255,255],

    "group":"Lanthanides",
    "period":6,
    "symbol":"Nd",
    "family":"Lanthanides",
    "fullName":"Neodymium",
    "AtomicNumber":60,
    "AtomicMass":144.24,
    "MeltingPointKelvin":"1,294",
    "BoilingPointKelvin": "3,373",
    "CommonUses":"",
    "Description":""
}
