{
    "backgroundColor":[100,100,150], 
    "textColor":[255,255,255],

    "group":"Lanthanides",
    "period":6,
    "symbol":"Pm",
    "family":"Lanthanides",
    "fullName":"Promethium",
    "AtomicNumber":61,
    "AtomicMass":"(145)",
    "MeltingPointKelvin":"1,373",
    "BoilingPointKelvin": "3,273",
    "CommonUses":"",
    "Description":""
}
