{
    "backgroundColor":[100,100,150], 
    "textColor":[255,255,255],

    "group":"Lanthanides",
    "period":6,
    "symbol":"Sm",
    "family":"Lanthanides",
    "fullName":"Samarium",
    "AtomicNumber":62,
    "AtomicMass":150.36,
    "MeltingPointKelvin":"1,345",
    "BoilingPointKelvin": "2,076",
    "CommonUses":"",
    "Description":""
}
