{
    "backgroundColor":[100,100,150], 
    "textColor":[255,255,255],

    "group":"Lanthanides",
    "period":6,
    "symbol":"Eu",
    "family":"Lanthanides",
    "fullName":"Europium",
    "AtomicNumber":63,
    "AtomicMass":151.96,
    "MeltingPointKelvin":"1,095",
    "BoilingPointKelvin": "1,800",
    "CommonUses":"",
    "Description":""
}
