{
    "backgroundColor":[120,70,70],
    "textColor":[255,255,255],

    "group":"Lanthanides",
    "period":6,
    "symbol":"Gd",
    "family":"Lanthanides",
    "fullName":"Gadolinium",
    "AtomicNumber":64,
    "AtomicMass":157.25,
    "MeltingPointKelvin":"1,586",
    "BoilingPointKelvin": "3,523",
    "CommonUses":"",
    "Description":""
}
