{
    "backgroundColor":[120,70,70],
    "textColor":[255,255,255],

    "group":"Lanthanides",
    "period":6,
    "symbol":"Tb",
    "family":"Lanthanides",
    "fullName":"Terbium",
    "AtomicNumber":65,
    "AtomicMass":158.93,
    "MeltingPointKelvin":"1,629",
    "BoilingPointKelvin": "3,503",
    "CommonUses":"",
    "Description":""
}
