{
    "backgroundColor":[100,100,150], 
    "textColor":[255,255,255],

    "group":"Lanthanides",
    "period":6,
    "symbol":"Dy",
    "family":"Lanthanides",
    "fullName":"Dysoprosium",
    "AtomicNumber":66,
    "AtomicMass":162.50,
    "MeltingPointKelvin":"1,685",
    "BoilingPointKelvin": "2,840",
    "CommonUses":"",
    "Description":""
}
