{
    "backgroundColor":[100,100,150], 
    "textColor":[255,255,255],

    "group":"Lanthanides",
    "period":6,
    "symbol":"Ho",
    "family":"Lanthanides",
    "fullName":"Holmium",
    "AtomicNumber":67,
    "AtomicMass":164.93,
    "MeltingPointKelvin":"1,747",
    "BoilingPointKelvin": "2,973",
    "CommonUses":"",
    "Description":""
}
