{
    "backgroundColor":[120,70,70],
    "textColor":[255,255,255],

    "group":"Lanthanides",
    "period":6,
    "symbol":"Er",
    "family":"Lanthanides",
    "fullName":"Erbium",
    "AtomicNumber":68,
    "AtomicMass":167.26,
    "MeltingPointKelvin":"1,770",
    "BoilingPointKelvin": "3,141",
    "CommonUses":"",
    "Description":""
}
