{
    "backgroundColor":[120,70,70],
    "textColor":[255,255,255],

    "group":"Lanthanides",
    "period":6,
    "symbol":"Th",
    "family":"Lanthanides",
    "fullName":"Thulium",
    "AtomicNumber":69,
    "AtomicMass":168.93,
    "MeltingPointKelvin":"1,818",
    "BoilingPointKelvin": "2,223",
    "CommonUses":"",
    "Description":""
}
