{
    "backgroundColor":[100,100,150], 
    "textColor":[255,255,255],

    "group":15,
    "period":2,
    "symbol":"N",
    "family":"Reactive Nonmetals",
    "fullName":"Nitrogen",
    "AtomicNumber":7,
    "AtomicMass":14.007,
    "MeltingPointKelvin":63.05,
    "BoilingPointKelvin": 77.36,
    "CommonUses":"",
    "Description":""
}
