{
    "backgroundColor":[100,100,150], 
    "textColor":[255,255,255],

    "group":"Lanthanides",
    "period":6,
    "symbol":"Yb",
    "family":"Lanthanides",
    "fullName":"Ytterbium",
    "AtomicNumber":70,
    "AtomicMass":173.05,
    "MeltingPointKelvin":"1,092",
    "BoilingPointKelvin": "1,469",
    "CommonUses":"",
    "Description":""
}
