{
    "backgroundColor":[120,70,70],
    "textColor":[255,255,255],

    "group":"Lanthanides",
    "period":6,
    "symbol":"Lu",
    "family":"Lanthanides",
    "fullName":"Lutetium",
    "AtomicNumber":71,
    "AtomicMass":174.97,
    "MeltingPointKelvin":"1,936",
    "BoilingPointKelvin": "3,675",
    "CommonUses":"",
    "Description":""
}
