{
    "backgroundColor":[175,20,50], 
    "textColor":[255,255,255],

    "group":8,
    "period":6,
    "symbol":"Os",
    "family":"Transition Metals",
    "fullName":"Osmium",
    "AtomicNumber":76,
    "AtomicMass":190.23,
    "MeltingPointKelvin":"3,306",
    "BoilingPointKelvin": "5,285",
    "CommonUses":"",
    "Description":""
}
