{
    "backgroundColor":[175,20,50], 
    "textColor":[255,255,255],

    "group":10,
    "period":6,
    "symbol":"Pt",
    "family":"Transition Metals",
    "fullName":"Platinum",
    "AtomicNumber":78,
    "AtomicMass":195.08,
    "MeltingPointKelvin":"2,041.4",
    "BoilingPointKelvin": "4,098",
    "CommonUses":"",
    "Description":""
}
