{
    "backgroundColor":[0,150,150], 
    "textColor":[255,255,255],

    "group":17,
    "period":6,
    "symbol":"At",
    "family":"Metalloids/Semi-Metals",
    "fullName":"Astatine",
    "AtomicNumber":85,
    "AtomicMass":"(210)",
    "MeltingPointKelvin":575,
    "BoilingPointKelvin": 623,
    "CommonUses":"",
    "Description":"Halogen, "
}
