{
    "backgroundColor":[150,75,150], 
    "textColor":[255,255,255],

    "group":18,
    "period":7,
    "symbol":"Rn",
    "family":"Noble Gases",
    "fullName":"Radon",
    "AtomicNumber":86,
    "AtomicMass":"(222)",
    "MeltingPointKelvin":202,
    "BoilingPointKelvin": 211.3,
    "CommonUses":"",
    "Description":""
}
