{
    "backgroundColor":[100,100,150], 
    "textColor":[255,255,255],

    "group":1,
    "period":7,
    "symbol":"Fr",
    "family":"Alkali Metals",
    "fullName":"Francium",
    "AtomicNumber":87,
    "AtomicMass":"(223)",
    "MeltingPointKelvin":294,
    "BoilingPointKelvin":923,
    "CommonUses":"",
    "Description":""
}

