{
    "backgroundColor":[200,180,100], 
    "textColor":[255,255,255],

    "group":2,
    "period":7,
    "symbol":"Ra",
    "family":"Alkaline Earth Metals",
    "fullName":"Radium",
    "AtomicNumber":88,
    "AtomicMass":"(226)",
    "MeltingPointKelvin":973,
    "BoilingPointKelvin": "2,010",
    "CommonUses":"",
    "Description":""
}
