{
    "backgroundColor":[150,75,125], 
    "textColor":[255,255,255],

    "group":"Actinides",
    "period":7,
    "symbol":"Ac",
    "family":"Actinides",
    "fullName":"Actinium",
    "AtomicNumber":89,
    "AtomicMass":"(227)",
    "MeltingPointKelvin":1323,
    "BoilingPointKelvin": 3473,
    "CommonUses":"",
    "Description":""
}
