{
    "backgroundColor":[100,100,150], 
    "textColor":[255,255,255],

    "group":"Actinides",
    "period":7,
    "symbol":"Th",
    "family":"Actinides",
    "fullName":"Thorium",
    "AtomicNumber":90,
    "AtomicMass":232.04,
    "MeltingPointKelvin":2,023,
    "BoilingPointKelvin": 5093,
    "CommonUses":"",
    "Description":""
}
