{
    "backgroundColor":[150,75,125], 
    "textColor":[255,255,255],

    "group":"Actinides",
    "period":7,
    "symbol":"Pa",
    "family":"Actinides",
    "fullName":"Proactinium",
    "AtomicNumber":91,
    "AtomicMass":231.04,
    "MeltingPointKelvin":"1,845",
    "BoilingPointKelvin": "4,273",
    "CommonUses":"",
    "Description":""
}
