{
    "backgroundColor":[100,100,150], 
    "textColor":[255,255,255],

    "group":"Actinides",
    "period":7,
    "symbol":"U",
    "family":"Actinides",
    "fullName":"Uranium",
    "AtomicNumber":92,
    "AtomicMass":238.03,
    "MeltingPointKelvin":"1,408",
    "BoilingPointKelvin": "4,200",
    "CommonUses":"",
    "Description":""
}
