{
    "backgroundColor":[100,100,150], 
    "textColor":[255,255,255],

    "group":"Actinides",
    "period":7,
    "symbol":"Np",
    "family":"Actinides",
    "fullName":"Neptunium",
    "AtomicNumber":93,
    "AtomicMass":"(237)",
    "MeltingPointKelvin":917,
    "BoilingPointKelvin": 4,273,
    "CommonUses":"",
    "Description":""
}
