{
    "backgroundColor":[100,100,150], 
    "textColor":[255,255,255],

    "group":"Actinides",
    "period":7,
    "symbol":"Pu",
    "family":"Actinides",
    "fullName":"Plutonium",
    "AtomicNumber":94,
    "AtomicMass":"(244)",
    "MeltingPointKelvin":913,
    "BoilingPointKelvin": "3,503",
    "CommonUses":"",
    "Description":""
}
