{
    "backgroundColor":[150,75,125], 
    "textColor":[255,255,255],

    "group":"Actinides",
    "period":7,
    "symbol":"Am",
    "family":"Actinides",
    "fullName":"Americium",
    "AtomicNumber":95,
    "AtomicMass":"(243)",
    "MeltingPointKelvin":"1,449",
    "BoilingPointKelvin": "2,284",
    "CommonUses":"",
    "Description":""
}

