{
    "backgroundColor":[150,75,125], 
    "textColor":[255,255,255],

    "group":"Actinides",
    "period":7,
    "symbol":"Cm",
    "family":"Actinides",
    "fullName":"Curium",
    "AtomicNumber":96,
    "AtomicMass":"(247)",
    "MeltingPointKelvin":"1,618",
    "BoilingPointKelvin": "3,383",
    "CommonUses":"",
    "Description":""
}
