{
    "backgroundColor":[100,100,150], 
    "textColor":[255,255,255],

    "group":"Actinides",
    "period":7,
    "symbol":"Bk",
    "family":"Actinides",
    "fullName":"Berkelium",
    "AtomicNumber":97,
    "AtomicMass":"(247)",
    "MeltingPointKelvin":"1,323",
    "BoilingPointKelvin": "Unknown",
    "CommonUses":"",
    "Description":""
}
