{
    "backgroundColor":[100,100,150], 
    "textColor":[255,255,255],

    "group":"Actinides",
    "period":7,
    "symbol":"Cf",
    "family":"Actinides",
    "fullName":"Californium",
    "AtomicNumber":98,
    "AtomicMass":"(251)",
    "MeltingPointKelvin":"1,173",
    "BoilingPointKelvin": "Unknown",
    "CommonUses":"",
    "Description":""
}
