{
    "backgroundColor":[100,100,150], 
    "textColor":[255,255,255],

    "group":"Actinides",
    "period":7,
    "symbol":"Es",
    "family":"Actinides",
    "fullName":"Einsteinium",
    "AtomicNumber":99,
    "AtomicMass":"(252)",
    "MeltingPointKelvin":"1,133",
    "BoilingPointKelvin": "Unknown",
    "CommonUses":"",
    "Description":""
}

